ITEM: TIMESTEP
0
ITEM: NUMBER OF ATOMS
80
ITEM: BOX BOUNDS pp pp pp
0.0000000000000000e+00 5.8835337090374216e+00
0.0000000000000000e+00 5.8835337090374216e+00
0.0000000000000000e+00 5.9522722538500005e+01
ITEM: ATOMS id type xs ys zs
1 1 0.249999 0.249999 0.168003
2 1 0.75 0.249999 0.168003
3 1 0.249999 0.75 0.168003
4 1 0.75 0.75 0.168003
5 1 0 0 0.20295
6 1 0.500001 0 0.20295
7 1 0 0.500001 0.20295
8 1 0.500001 0.500001 0.20295
9 1 0.249999 0.249999 0.237897
10 1 0.75 0.249999 0.237897
11 1 0.249999 0.75 0.237897
12 1 0.75 0.75 0.237897
13 1 0 0 0.272844
14 1 0.500001 0 0.272844
15 1 0 0.500001 0.272844
16 1 0.500001 0.500001 0.272844
17 1 0.249999 0.249999 0.307791
18 1 0.75 0.249999 0.307791
19 1 0.249999 0.75 0.307791
20 1 0.75 0.75 0.307791
21 1 0 0 0.342738
22 1 0.500001 0 0.342738
23 1 0 0.500001 0.342738
24 1 0.500001 0.500001 0.342738
25 1 0.249999 0.249999 0.377685
26 1 0.75 0.249999 0.377685
27 1 0.249999 0.75 0.377685
28 1 0.75 0.75 0.377685
29 1 0 0 0.412632
30 1 0.500001 0 0.412632
31 1 0 0.500001 0.412632
32 1 0.500001 0.500001 0.412632
33 1 0.249999 0.249999 0.447579
34 1 0.75 0.249999 0.447579
35 1 0.249999 0.75 0.447579
36 1 0.75 0.75 0.447579
37 1 0 0 0.482526
38 1 0.500001 0 0.482526
39 1 0 0.500001 0.482526
40 1 0.500001 0.500001 0.482526
41 1 0.249999 0.249999 0.517473
42 1 0.75 0.249999 0.517473
43 1 0.249999 0.75 0.517473
44 1 0.75 0.75 0.517473
45 1 0 0 0.552421
46 1 0.500001 0 0.552421
47 1 0 0.500001 0.552421
48 1 0.500001 0.500001 0.552421
49 1 0.249999 0.249999 0.587368
50 1 0.75 0.249999 0.587368
51 1 0.249999 0.75 0.587368
52 1 0.75 0.75 0.587368
53 1 0 0 0.622315
54 1 0.500001 0 0.622315
55 1 0 0.500001 0.622315
56 1 0.500001 0.500001 0.622315
57 1 0.249999 0.249999 0.657262
58 1 0.75 0.249999 0.657262
59 1 0.249999 0.75 0.657262
60 1 0.75 0.75 0.657262
61 1 0 0 0.692209
62 1 0.500001 0 0.692209
63 1 0 0.500001 0.692209
64 1 0.500001 0.500001 0.692209
65 1 0.249999 0.249999 0.727156
66 1 0.75 0.249999 0.727156
67 1 0.249999 0.75 0.727156
68 1 0.75 0.75 0.727156
69 1 0 0 0.762103
70 1 0.500001 0 0.762103
71 1 0 0.500001 0.762103
72 1 0.500001 0.500001 0.762103
73 1 0.249999 0.249999 0.79705
74 1 0.75 0.249999 0.79705
75 1 0.249999 0.75 0.79705
76 1 0.75 0.75 0.79705
77 1 0 0 0.831997
78 1 0.500001 0 0.831997
79 1 0 0.500001 0.831997
80 1 0.500001 0.500001 0.831997
ITEM: TIMESTEP
92
ITEM: NUMBER OF ATOMS
80
ITEM: BOX BOUNDS pp pp pp
2.0565120753736287e-03 5.8814771969620425e+00
2.0565120753736287e-03 5.8814771969620425e+00
2.0805387325564608e-02 5.9501917151174403e+01
ITEM: ATOMS id type xs ys zs
1 1 0.25 0.25 0.167289
2 1 0.75 0.25 0.167289
3 1 0.25 0.75 0.167289
4 1 0.75 0.75 0.167289
5 1 -3.4251e-08 -3.4251e-08 0.202588
6 1 0.5 -3.42511e-08 0.202588
7 1 -3.42511e-08 0.5 0.202588
8 1 0.5 0.5 0.202588
9 1 0.25 0.25 0.237591
10 1 0.75 0.25 0.237591
11 1 0.25 0.75 0.237591
12 1 0.75 0.75 0.237591
13 1 -2.82729e-08 -2.82729e-08 0.272585
14 1 0.5 -2.82729e-08 0.272585
15 1 -2.82729e-08 0.5 0.272585
16 1 0.5 0.5 0.272585
17 1 0.25 0.25 0.307578
18 1 0.75 0.25 0.307578
19 1 0.25 0.75 0.307578
20 1 0.75 0.75 0.307578
21 1 -1.76779e-08 -1.76779e-08 0.342567
22 1 0.5 -1.76777e-08 0.342567
23 1 -1.76777e-08 0.5 0.342567
24 1 0.5 0.5 0.342567
25 1 0.25 0.25 0.377556
26 1 0.75 0.25 0.377556
27 1 0.25 0.75 0.377556
28 1 0.75 0.75 0.377556
29 1 -1.93734e-08 -1.93734e-08 0.41254
30 1 0.5 -1.93727e-08 0.41254
31 1 -1.93727e-08 0.5 0.41254
32 1 0.5 0.5 0.41254
33 1 0.25 0.25 0.447526
34 1 0.75 0.25 0.447526
35 1 0.25 0.75 0.447526
36 1 0.75 0.75 0.447526
37 1 -2.28352e-08 -2.28352e-08 0.482508
38 1 0.5 -2.28343e-08 0.482508
39 1 -2.28343e-08 0.5 0.482508
40 1 0.5 0.5 0.482508
41 1 0.25 0.25 0.517492
42 1 0.75 0.25 0.517492
43 1 0.25 0.75 0.517492
44 1 0.75 0.75 0.517492
45 1 -2.81535e-08 -2.81535e-08 0.552474
46 1 0.5 -2.81526e-08 0.552474
47 1 -2.81526e-08 0.5 0.552474
48 1 0.5 0.5 0.552474
49 1 0.25 0.25 0.58746
50 1 0.75 0.25 0.58746
51 1 0.25 0.75 0.58746
52 1 0.75 0.75 0.58746
53 1 -2.64767e-08 -2.64766e-08 0.622444
54 1 0.5 -2.64762e-08 0.622444
55 1 -2.64762e-08 0.5 0.622444
56 1 0.5 0.5 0.622444
57 1 0.25 0.25 0.657433
58 1 0.75 0.25 0.657433
59 1 0.25 0.75 0.657433
60 1 0.75 0.75 0.657433
61 1 -2.88442e-08 -2.88443e-08 0.692422
62 1 0.5 -2.88443e-08 0.692422
63 1 -2.88441e-08 0.5 0.692422
64 1 0.5 0.5 0.692422
65 1 0.25 0.25 0.727415
66 1 0.75 0.25 0.727415
67 1 0.25 0.75 0.727415
68 1 0.75 0.75 0.727415
69 1 -1.45856e-08 -1.45857e-08 0.762409
70 1 0.5 -1.45857e-08 0.762409
71 1 -1.45856e-08 0.5 0.762409
72 1 0.5 0.5 0.762409
73 1 0.25 0.25 0.797412
74 1 0.75 0.25 0.797412
75 1 0.25 0.75 0.797412
76 1 0.75 0.75 0.797412
77 1 -1.03466e-08 -1.03465e-08 0.832711
78 1 0.5 -1.03465e-08 0.832711
79 1 -1.03466e-08 0.5 0.832711
80 1 0.5 0.5 0.832711
