LAMMPS (3 Mar 2020)
Reading data file ...
  orthogonal box = (0 0 0) to (4.2 4.2 4.2)
  1 by 1 by 1 MPI processor grid
  reading atoms ...
  4 atoms
  read_data CPU = 0.000912979 secs
WARNING: No fixes defined, atoms won't move (src/verlet.cpp:52)
Neighbor list info ...
  update every 1 steps, delay 10 steps, check yes
  max neighbors/atom: 2000, page size: 100000
  master list distance cutoff = 6.5
  ghost atom cutoff = 6.5
  binsize = 3.25, bins = 2 2 2
  1 neighbor lists, perpetual/occasional/extra = 1 0 0
  (1) pair lj/cut, perpetual
      attributes: half, newton on
      pair build: half/bin/atomonly/newton
      stencil: half/bin/3d/newton
      bin: standard
Setting up Verlet run ...
  Unit style    : metal
  Current step  : 0
  Time step     : 0.001
Per MPI rank memory allocation (min/avg/max) = 2.959 | 2.959 | 2.959 Mbytes
Step PotEng Lx Ly Lz Press Pxx Pyy Pzz 
       0   -9.2464082          4.2          4.2          4.2   -41990.976   -41990.976   -41990.976   -41990.976 
Loop time of 1.158e-06 on 1 procs for 0 steps with 4 atoms

259.1% CPU use with 1 MPI tasks x no OpenMP threads

MPI task timing breakdown:
Section |  min time  |  avg time  |  max time  |%varavg| %total
---------------------------------------------------------------
Pair    | 0          | 0          | 0          |   0.0 |  0.00
Neigh   | 0          | 0          | 0          |   0.0 |  0.00
Comm    | 0          | 0          | 0          |   0.0 |  0.00
Output  | 0          | 0          | 0          |   0.0 |  0.00
Modify  | 0          | 0          | 0          |   0.0 |  0.00
Other   |            | 1.158e-06  |            |       |100.00

Nlocal:    4 ave 4 max 4 min
Histogram: 1 0 0 0 0 0 0 0 0 0
Nghost:    360 ave 360 max 360 min
Histogram: 1 0 0 0 0 0 0 0 0 0
Neighs:    108 ave 108 max 108 min
Histogram: 1 0 0 0 0 0 0 0 0 0

Total # of neighbors = 108
Ave neighs/atom = 27
Neighbor list builds = 0
Dangerous builds = 0
WARNING: Using 'neigh_modify every 1 delay 0 check yes' setting during minimization (src/min.cpp:190)
Setting up cg style minimization ...
  Unit style    : metal
  Current step  : 0
WARNING: Energy due to 1 extra global DOFs will be included in minimizer energies
Per MPI rank memory allocation (min/avg/max) = 4.084 | 4.084 | 4.084 Mbytes
Step PotEng Lx Ly Lz Press Pxx Pyy Pzz 
       0   -9.2464082          4.2          4.2          4.2   -41990.976   -41990.976   -41990.976   -41990.976 
      12   -9.2748837    4.1602866    4.1602866    4.1602866 -2.7549105e-05 -2.7549106e-05 -2.7549106e-05 -2.7549103e-05 
Loop time of 0.000144549 on 1 procs for 12 steps with 4 atoms

76.8% CPU use with 1 MPI tasks x no OpenMP threads

Minimization stats:
  Stopping criterion = energy tolerance
  Energy initial, next-to-last, final = 
        -9.24640824339     -9.27488372093     -9.27488372093
  Force two-norm initial, final = 5.82525 3.74985e-09
  Force max component initial, final = 5.82525 3.74985e-09
  Final line search alpha, max atom move = 1 3.74985e-09
  Iterations, force evaluations = 12 15

MPI task timing breakdown:
Section |  min time  |  avg time  |  max time  |%varavg| %total
---------------------------------------------------------------
Pair    | 4.0587e-05 | 4.0587e-05 | 4.0587e-05 |   0.0 | 28.08
Neigh   | 0          | 0          | 0          |   0.0 |  0.00
Comm    | 2.7556e-05 | 2.7556e-05 | 2.7556e-05 |   0.0 | 19.06
Output  | 0          | 0          | 0          |   0.0 |  0.00
Modify  | 0          | 0          | 0          |   0.0 |  0.00
Other   |            | 7.641e-05  |            |       | 52.86

Nlocal:    4 ave 4 max 4 min
Histogram: 1 0 0 0 0 0 0 0 0 0
Nghost:    360 ave 360 max 360 min
Histogram: 1 0 0 0 0 0 0 0 0 0
Neighs:    108 ave 108 max 108 min
Histogram: 1 0 0 0 0 0 0 0 0 0

Total # of neighbors = 108
Ave neighs/atom = 27
Neighbor list builds = 0
Dangerous builds = 0
Total energy (eV) = -9.27488372093024
Number of atoms = 4
Lattice constant (Angstoms) = 4.16028658339377
Total wall time: 0:00:00
